# vtk DataFile Version 3.0
vtk output
ASCII
DATASET RECTILINEAR_GRID
FIELD FieldData 2
TIME 1 1 double
0.00000000
CYCLE 1 1 int
1
DIMENSIONS 101 11 1
X_COORDINATES 101 float
0.00000000 1.00000000 2.00000000 3.00000000 4.00000000 5.00000000 6.00000000 7.00000000 8.00000000 9.00000000 10.00000000 11.00000000 12.00000000 13.00000000 14.00000000 15.00000000 16.00000000 17.00000000 18.00000000 19.00000000 20.00000000 21.00000000 22.00000000 23.00000000 24.00000000 25.00000000 26.00000000 27.00000000 28.00000000 29.00000000 30.00000000 31.00000000 32.00000000 33.00000000 34.00000000 35.00000000 36.00000000 37.00000000 38.00000000 39.00000000 40.00000000 41.00000000 42.00000000 43.00000000 44.00000000 45.00000000 46.00000000 47.00000000 48.00000000 49.00000000 50.00000000 51.00000000 52.00000000 53.00000000 54.00000000 55.00000000 56.00000000 57.00000000 58.00000000 59.00000000 60.00000000 61.00000000 62.00000000 63.00000000 64.00000000 65.00000000 66.00000000 67.00000000 68.00000000 69.00000000 70.00000000 71.00000000 72.00000000 73.00000000 74.00000000 75.00000000 76.00000000 77.00000000 78.00000000 79.00000000 80.00000000 81.00000000 82.00000000 83.00000000 84.00000000 85.00000000 86.00000000 87.00000000 88.00000000 89.00000000 90.00000000 91.00000000 92.00000000 93.00000000 94.00000000 95.00000000 96.00000000 97.00000000 98.00000000 99.00000000 100.00000000 
Y_COORDINATES 11 float
0.00000000 1.00000000 2.00000000 3.00000000 4.00000000 5.00000000 6.00000000 7.00000000 8.00000000 9.00000000 10.00000000 
Z_COORDINATES 1 float
0.0000
CELL_DATA 1000
FIELD FieldData 1
u 1 1000 double
10.00000000 10.00000000 10.00000000 10.00000000 10.00000000 10.00000000 10.00000000 10.00000000 10.00000000 10.00000000 10.00000000 10.00000000 10.00000000 10.00000000 10.00000000 10.00000000 10.00000000 10.00000000 10.00000000 10.00000000 10.00000000 10.00000000 10.00000000 10.00000000 10.00000000 10.00000000 10.00000000 10.00000000 10.00000000 10.00000000 10.00000000 10.00000000 10.00000000 10.00000000 10.00000000 10.00000000 9.99999998 9.99999982 9.99999873 9.99999187 9.99995240 9.99974674 9.99878245 9.99474073 9.97971897 9.93067564 9.79157817 9.45329549 8.75842584 7.57309738 5.92315126 4.07684874 2.42690262 1.24157416 0.54670451 0.20842183 0.06932436 0.02028103 0.00525927 0.00121755 0.00025326 0.00004760 0.00000813 0.00000127 0.00000018 0.00000002 0.00000000 0.00000000 0.00000000 0.00000000 0.00000000 0.00000000 0.00000000 0.00000000 0.00000000 0.00000000 0.00000000 0.00000000 0.00000000 0.00000000 0.00000000 0.00000000 0.00000000 0.00000000 0.00000000 0.00000000 0.00000000 0.00000000 0.00000000 0.00000000 0.00000000 0.00000000 0.00000000 0.00000000 0.00000000 0.00000000 0.00000000 0.00000000 0.00000000 0.00000000 
10.00000000 10.00000000 10.00000000 10.00000000 10.00000000 10.00000000 10.00000000 10.00000000 10.00000000 10.00000000 10.00000000 10.00000000 10.00000000 10.00000000 10.00000000 10.00000000 10.00000000 10.00000000 10.00000000 10.00000000 10.00000000 10.00000000 10.00000000 10.00000000 10.00000000 10.00000000 10.00000000 10.00000000 10.00000000 10.00000000 10.00000000 10.00000000 10.00000000 10.00000000 10.00000000 10.00000000 9.99999998 9.99999982 9.99999873 9.99999187 9.99995240 9.99974674 9.99878245 9.99474073 9.97971897 9.93067564 9.79157817 9.45329549 8.75842584 7.57309738 5.92315126 4.07684874 2.42690262 1.24157416 0.54670451 0.20842183 0.06932436 0.02028103 0.00525927 0.00121755 0.00025326 0.00004760 0.00000813 0.00000127 0.00000018 0.00000002 0.00000000 0.00000000 0.00000000 0.00000000 0.00000000 0.00000000 0.00000000 0.00000000 0.00000000 0.00000000 0.00000000 0.00000000 0.00000000 0.00000000 0.00000000 0.00000000 0.00000000 0.00000000 0.00000000 0.00000000 0.00000000 0.00000000 0.00000000 0.00000000 0.00000000 0.00000000 0.00000000 0.00000000 0.00000000 0.00000000 0.00000000 0.00000000 0.00000000 0.00000000 
10.00000000 10.00000000 10.00000000 10.00000000 10.00000000 10.00000000 10.00000000 10.00000000 10.00000000 10.00000000 10.00000000 10.00000000 10.00000000 10.00000000 10.00000000 10.00000000 10.00000000 10.00000000 10.00000000 10.00000000 10.00000000 10.00000000 10.00000000 10.00000000 10.00000000 10.00000000 10.00000000 10.00000000 10.00000000 10.00000000 10.00000000 10.00000000 10.00000000 10.00000000 10.00000000 10.00000000 9.99999998 9.99999982 9.99999873 9.99999187 9.99995240 9.99974674 9.99878245 9.99474073 9.97971897 9.93067564 9.79157817 9.45329549 8.75842584 7.57309738 5.92315126 4.07684874 2.42690262 1.24157416 0.54670451 0.20842183 0.06932436 0.02028103 0.00525927 0.00121755 0.00025326 0.00004760 0.00000813 0.00000127 0.00000018 0.00000002 0.00000000 0.00000000 0.00000000 0.00000000 0.00000000 0.00000000 0.00000000 0.00000000 0.00000000 0.00000000 0.00000000 0.00000000 0.00000000 0.00000000 0.00000000 0.00000000 0.00000000 0.00000000 0.00000000 0.00000000 0.00000000 0.00000000 0.00000000 0.00000000 0.00000000 0.00000000 0.00000000 0.00000000 0.00000000 0.00000000 0.00000000 0.00000000 0.00000000 0.00000000 
10.00000000 10.00000000 10.00000000 10.00000000 10.00000000 10.00000000 10.00000000 10.00000000 10.00000000 10.00000000 10.00000000 10.00000000 10.00000000 10.00000000 10.00000000 10.00000000 10.00000000 10.00000000 10.00000000 10.00000000 10.00000000 10.00000000 10.00000000 10.00000000 10.00000000 10.00000000 10.00000000 10.00000000 10.00000000 10.00000000 10.00000000 10.00000000 10.00000000 10.00000000 10.00000000 10.00000000 9.99999998 9.99999982 9.99999873 9.99999187 9.99995240 9.99974674 9.99878245 9.99474073 9.97971897 9.93067564 9.79157817 9.45329549 8.75842584 7.57309738 5.92315126 4.07684874 2.42690262 1.24157416 0.54670451 0.20842183 0.06932436 0.02028103 0.00525927 0.00121755 0.00025326 0.00004760 0.00000813 0.00000127 0.00000018 0.00000002 0.00000000 0.00000000 0.00000000 0.00000000 0.00000000 0.00000000 0.00000000 0.00000000 0.00000000 0.00000000 0.00000000 0.00000000 0.00000000 0.00000000 0.00000000 0.00000000 0.00000000 0.00000000 0.00000000 0.00000000 0.00000000 0.00000000 0.00000000 0.00000000 0.00000000 0.00000000 0.00000000 0.00000000 0.00000000 0.00000000 0.00000000 0.00000000 0.00000000 0.00000000 
10.00000000 10.00000000 10.00000000 10.00000000 10.00000000 10.00000000 10.00000000 10.00000000 10.00000000 10.00000000 10.00000000 10.00000000 10.00000000 10.00000000 10.00000000 10.00000000 10.00000000 10.00000000 10.00000000 10.00000000 10.00000000 10.00000000 10.00000000 10.00000000 10.00000000 10.00000000 10.00000000 10.00000000 10.00000000 10.00000000 10.00000000 10.00000000 10.00000000 10.00000000 10.00000000 10.00000000 9.99999998 9.99999982 9.99999873 9.99999187 9.99995240 9.99974674 9.99878245 9.99474073 9.97971897 9.93067564 9.79157817 9.45329549 8.75842584 7.57309738 5.92315126 4.07684874 2.42690262 1.24157416 0.54670451 0.20842183 0.06932436 0.02028103 0.00525927 0.00121755 0.00025326 0.00004760 0.00000813 0.00000127 0.00000018 0.00000002 0.00000000 0.00000000 0.00000000 0.00000000 0.00000000 0.00000000 0.00000000 0.00000000 0.00000000 0.00000000 0.00000000 0.00000000 0.00000000 0.00000000 0.00000000 0.00000000 0.00000000 0.00000000 0.00000000 0.00000000 0.00000000 0.00000000 0.00000000 0.00000000 0.00000000 0.00000000 0.00000000 0.00000000 0.00000000 0.00000000 0.00000000 0.00000000 0.00000000 0.00000000 
10.00000000 10.00000000 10.00000000 10.00000000 10.00000000 10.00000000 10.00000000 10.00000000 10.00000000 10.00000000 10.00000000 10.00000000 10.00000000 10.00000000 10.00000000 10.00000000 10.00000000 10.00000000 10.00000000 10.00000000 10.00000000 10.00000000 10.00000000 10.00000000 10.00000000 10.00000000 10.00000000 10.00000000 10.00000000 10.00000000 10.00000000 10.00000000 10.00000000 10.00000000 10.00000000 10.00000000 9.99999998 9.99999982 9.99999873 9.99999187 9.99995240 9.99974674 9.99878245 9.99474073 9.97971897 9.93067564 9.79157817 9.45329549 8.75842584 7.57309738 5.92315126 4.07684874 2.42690262 1.24157416 0.54670451 0.20842183 0.06932436 0.02028103 0.00525927 0.00121755 0.00025326 0.00004760 0.00000813 0.00000127 0.00000018 0.00000002 0.00000000 0.00000000 0.00000000 0.00000000 0.00000000 0.00000000 0.00000000 0.00000000 0.00000000 0.00000000 0.00000000 0.00000000 0.00000000 0.00000000 0.00000000 0.00000000 0.00000000 0.00000000 0.00000000 0.00000000 0.00000000 0.00000000 0.00000000 0.00000000 0.00000000 0.00000000 0.00000000 0.00000000 0.00000000 0.00000000 0.00000000 0.00000000 0.00000000 0.00000000 
10.00000000 10.00000000 10.00000000 10.00000000 10.00000000 10.00000000 10.00000000 10.00000000 10.00000000 10.00000000 10.00000000 10.00000000 10.00000000 10.00000000 10.00000000 10.00000000 10.00000000 10.00000000 10.00000000 10.00000000 10.00000000 10.00000000 10.00000000 10.00000000 10.00000000 10.00000000 10.00000000 10.00000000 10.00000000 10.00000000 10.00000000 10.00000000 10.00000000 10.00000000 10.00000000 10.00000000 9.99999998 9.99999982 9.99999873 9.99999187 9.99995240 9.99974674 9.99878245 9.99474073 9.97971897 9.93067564 9.79157817 9.45329549 8.75842584 7.57309738 5.92315126 4.07684874 2.42690262 1.24157416 0.54670451 0.20842183 0.06932436 0.02028103 0.00525927 0.00121755 0.00025326 0.00004760 0.00000813 0.00000127 0.00000018 0.00000002 0.00000000 0.00000000 0.00000000 0.00000000 0.00000000 0.00000000 0.00000000 0.00000000 0.00000000 0.00000000 0.00000000 0.00000000 0.00000000 0.00000000 0.00000000 0.00000000 0.00000000 0.00000000 0.00000000 0.00000000 0.00000000 0.00000000 0.00000000 0.00000000 0.00000000 0.00000000 0.00000000 0.00000000 0.00000000 0.00000000 0.00000000 0.00000000 0.00000000 0.00000000 
10.00000000 10.00000000 10.00000000 10.00000000 10.00000000 10.00000000 10.00000000 10.00000000 10.00000000 10.00000000 10.00000000 10.00000000 10.00000000 10.00000000 10.00000000 10.00000000 10.00000000 10.00000000 10.00000000 10.00000000 10.00000000 10.00000000 10.00000000 10.00000000 10.00000000 10.00000000 10.00000000 10.00000000 10.00000000 10.00000000 10.00000000 10.00000000 10.00000000 10.00000000 10.00000000 10.00000000 9.99999998 9.99999982 9.99999873 9.99999187 9.99995240 9.99974674 9.99878245 9.99474073 9.97971897 9.93067564 9.79157817 9.45329549 8.75842584 7.57309738 5.92315126 4.07684874 2.42690262 1.24157416 0.54670451 0.20842183 0.06932436 0.02028103 0.00525927 0.00121755 0.00025326 0.00004760 0.00000813 0.00000127 0.00000018 0.00000002 0.00000000 0.00000000 0.00000000 0.00000000 0.00000000 0.00000000 0.00000000 0.00000000 0.00000000 0.00000000 0.00000000 0.00000000 0.00000000 0.00000000 0.00000000 0.00000000 0.00000000 0.00000000 0.00000000 0.00000000 0.00000000 0.00000000 0.00000000 0.00000000 0.00000000 0.00000000 0.00000000 0.00000000 0.00000000 0.00000000 0.00000000 0.00000000 0.00000000 0.00000000 
10.00000000 10.00000000 10.00000000 10.00000000 10.00000000 10.00000000 10.00000000 10.00000000 10.00000000 10.00000000 10.00000000 10.00000000 10.00000000 10.00000000 10.00000000 10.00000000 10.00000000 10.00000000 10.00000000 10.00000000 10.00000000 10.00000000 10.00000000 10.00000000 10.00000000 10.00000000 10.00000000 10.00000000 10.00000000 10.00000000 10.00000000 10.00000000 10.00000000 10.00000000 10.00000000 10.00000000 9.99999998 9.99999982 9.99999873 9.99999187 9.99995240 9.99974674 9.99878245 9.99474073 9.97971897 9.93067564 9.79157817 9.45329549 8.75842584 7.57309738 5.92315126 4.07684874 2.42690262 1.24157416 0.54670451 0.20842183 0.06932436 0.02028103 0.00525927 0.00121755 0.00025326 0.00004760 0.00000813 0.00000127 0.00000018 0.00000002 0.00000000 0.00000000 0.00000000 0.00000000 0.00000000 0.00000000 0.00000000 0.00000000 0.00000000 0.00000000 0.00000000 0.00000000 0.00000000 0.00000000 0.00000000 0.00000000 0.00000000 0.00000000 0.00000000 0.00000000 0.00000000 0.00000000 0.00000000 0.00000000 0.00000000 0.00000000 0.00000000 0.00000000 0.00000000 0.00000000 0.00000000 0.00000000 0.00000000 0.00000000 
10.00000000 10.00000000 10.00000000 10.00000000 10.00000000 10.00000000 10.00000000 10.00000000 10.00000000 10.00000000 10.00000000 10.00000000 10.00000000 10.00000000 10.00000000 10.00000000 10.00000000 10.00000000 10.00000000 10.00000000 10.00000000 10.00000000 10.00000000 10.00000000 10.00000000 10.00000000 10.00000000 10.00000000 10.00000000 10.00000000 10.00000000 10.00000000 10.00000000 10.00000000 10.00000000 10.00000000 9.99999998 9.99999982 9.99999873 9.99999187 9.99995240 9.99974674 9.99878245 9.99474073 9.97971897 9.93067564 9.79157817 9.45329549 8.75842584 7.57309738 5.92315126 4.07684874 2.42690262 1.24157416 0.54670451 0.20842183 0.06932436 0.02028103 0.00525927 0.00121755 0.00025326 0.00004760 0.00000813 0.00000127 0.00000018 0.00000002 0.00000000 0.00000000 0.00000000 0.00000000 0.00000000 0.00000000 0.00000000 0.00000000 0.00000000 0.00000000 0.00000000 0.00000000 0.00000000 0.00000000 0.00000000 0.00000000 0.00000000 0.00000000 0.00000000 0.00000000 0.00000000 0.00000000 0.00000000 0.00000000 0.00000000 0.00000000 0.00000000 0.00000000 0.00000000 0.00000000 0.00000000 0.00000000 0.00000000 0.00000000 
